# vtk DataFile Version 5.1
vtk output
ASCII
DATASET STRUCTURED_GRID
DIMENSIONS 2 2 3
POINTS 12 float
0 0 0 1 0 0 0 1 0 
1 1 0 0 0 1 1 0 1 
0 1 1 1 1 1 0 0 2 
1 0 2 0 1 2 1 1 2 

POINT_DATA 12
VECTORS vectors double
0 0 0.1 1 0 0.1 0 1 0.1 
1 1 0.1 0 0 1.1 1 0 1.1 
0 1 1.1 1 1 1.1 0 0 2.1 
1 0 2.1 0 1 2.1 1 1 2.1 

