# vtk DataFile Version 5.1
vtk output
ASCII
DATASET STRUCTURED_GRID
DIMENSIONS 20 20 1
POINTS 400 float
0 0 0 1 0 0 2 0 0 
3 0 0 4 0 0 5 0 0 
6 0 0 7 0 0 8 0 0 
9 0 0 10 0 0 11 0 0 
12 0 0 13 0 0 14 0 0 
15 0 0 16 0 0 17 0 0 
18 0 0 19 0 0 0 1 0 
1 1 0 2 1 0 3 1 0 
4 1 0 5 1 0 6 1 0 
7 1 0 8 1 0 9 1 0 
10 1 0 11 1 0 12 1 0 
13 1 0 14 1 0 15 1 0 
16 1 0 17 1 0 18 1 0 
19 1 0 0 2 0 1 2 0 
2 2 0 3 2 0 4 2 0 
5 2 0 6 2 0 7 2 0 
8 2 0 9 2 0 10 2 0 
11 2 0 12 2 0 13 2 0 
14 2 0 15 2 0 16 2 0 
17 2 0 18 2 0 19 2 0 
0 3 0 1 3 0 2 3 0 
3 3 0 4 3 0 5 3 0 
6 3 0 7 3 0 8 3 0 
9 3 0 10 3 0 11 3 0 
12 3 0 13 3 0 14 3 0 
15 3 0 16 3 0 17 3 0 
18 3 0 19 3 0 0 4 0 
1 4 0 2 4 0 3 4 0 
4 4 0 5 4 0 6 4 0 
7 4 0 8 4 0 9 4 0 
10 4 0 11 4 0 12 4 0 
13 4 0 14 4 0 15 4 0 
16 4 0 17 4 0 18 4 0 
19 4 0 0 5 0 1 5 0 
2 5 0 3 5 0 4 5 0 
5 5 0 6 5 0 7 5 0 
8 5 0 9 5 0 10 5 0 
11 5 0 12 5 0 13 5 0 
14 5 0 15 5 0 16 5 0 
17 5 0 18 5 0 19 5 0 
0 6 0 1 6 0 2 6 0 
3 6 0 4 6 0 5 6 0 
6 6 0 7 6 0 8 6 0 
9 6 0 10 6 0 11 6 0 
12 6 0 13 6 0 14 6 0 
15 6 0 16 6 0 17 6 0 
18 6 0 19 6 0 0 7 0 
1 7 0 2 7 0 3 7 0 
4 7 0 5 7 0 6 7 0 
7 7 0 8 7 0 9 7 0 
10 7 0 11 7 0 12 7 0 
13 7 0 14 7 0 15 7 0 
16 7 0 17 7 0 18 7 0 
19 7 0 0 8 0 1 8 0 
2 8 0 3 8 0 4 8 0 
5 8 0 6 8 0 7 8 0 
8 8 0 9 8 0 10 8 0 
11 8 0 12 8 0 13 8 0 
14 8 0 15 8 0 16 8 0 
17 8 0 18 8 0 19 8 0 
0 9 0 1 9 0 2 9 0 
3 9 0 4 9 0 5 9 0 
6 9 0 7 9 0 8 9 0 
9 9 0 10 9 0 11 9 0 
12 9 0 13 9 0 14 9 0 
15 9 0 16 9 0 17 9 0 
18 9 0 19 9 0 0 10 0 
1 10 0 2 10 0 3 10 0 
4 10 0 5 10 0 6 10 0 
7 10 0 8 10 0 9 10 0 
10 10 0 11 10 0 12 10 0 
13 10 0 14 10 0 15 10 0 
16 10 0 17 10 0 18 10 0 
19 10 0 0 11 0 1 11 0 
2 11 0 3 11 0 4 11 0 
5 11 0 6 11 0 7 11 0 
8 11 0 9 11 0 10 11 0 
11 11 0 12 11 0 13 11 0 
14 11 0 15 11 0 16 11 0 
17 11 0 18 11 0 19 11 0 
0 12 0 1 12 0 2 12 0 
3 12 0 4 12 0 5 12 0 
6 12 0 7 12 0 8 12 0 
9 12 0 10 12 0 11 12 0 
12 12 0 13 12 0 14 12 0 
15 12 0 16 12 0 17 12 0 
18 12 0 19 12 0 0 13 0 
1 13 0 2 13 0 3 13 0 
4 13 0 5 13 0 6 13 0 
7 13 0 8 13 0 9 13 0 
10 13 0 11 13 0 12 13 0 
13 13 0 14 13 0 15 13 0 
16 13 0 17 13 0 18 13 0 
19 13 0 0 14 0 1 14 0 
2 14 0 3 14 0 4 14 0 
5 14 0 6 14 0 7 14 0 
8 14 0 9 14 0 10 14 0 
11 14 0 12 14 0 13 14 0 
14 14 0 15 14 0 16 14 0 
17 14 0 18 14 0 19 14 0 
0 15 0 1 15 0 2 15 0 
3 15 0 4 15 0 5 15 0 
6 15 0 7 15 0 8 15 0 
9 15 0 10 15 0 11 15 0 
12 15 0 13 15 0 14 15 0 
15 15 0 16 15 0 17 15 0 
18 15 0 19 15 0 0 16 0 
1 16 0 2 16 0 3 16 0 
4 16 0 5 16 0 6 16 0 
7 16 0 8 16 0 9 16 0 
10 16 0 11 16 0 12 16 0 
13 16 0 14 16 0 15 16 0 
16 16 0 17 16 0 18 16 0 
19 16 0 0 17 0 1 17 0 
2 17 0 3 17 0 4 17 0 
5 17 0 6 17 0 7 17 0 
8 17 0 9 17 0 10 17 0 
11 17 0 12 17 0 13 17 0 
14 17 0 15 17 0 16 17 0 
17 17 0 18 17 0 19 17 0 
0 18 0 1 18 0 2 18 0 
3 18 0 4 18 0 5 18 0 
6 18 0 7 18 0 8 18 0 
9 18 0 10 18 0 11 18 0 
12 18 0 13 18 0 14 18 0 
15 18 0 16 18 0 17 18 0 
18 18 0 19 18 0 0 19 0 
1 19 0 2 19 0 3 19 0 
4 19 0 5 19 0 6 19 0 
7 19 0 8 19 0 9 19 0 
10 19 0 11 19 0 12 19 0 
13 19 0 14 19 0 15 19 0 
16 19 0 17 19 0 18 19 0 
19 19 0 
POINT_DATA 400
VECTORS vectors double
30 -62.5 0 21 -32 0 14 -13.5 0 
9 -4 0 6 -0.5 0 5 -0 0 
6 0.5 0 9 4 0 14 13.5 0 
21 32 0 30 62.5 0 41 108 0 
54 171.5 0 69 256 0 86 364.5 0 
105 500 0 126 665.5 0 149 864 0 
174 1098.5 0 201 1372 0 30 -50 0 
21 -25.6 0 14 -10.8 0 9 -3.2 0 
6 -0.4 0 5 -0 0 6 0.4 0 
9 3.2 0 14 10.8 0 21 25.6 0 
30 50 0 41 86.4 0 54 137.2 0 
69 204.8 0 86 291.6 0 105 400 0 
126 532.4 0 149 691.2 0 174 878.8 0 
201 1097.6 0 30 -37.5 0 21 -19.2 0 
14 -8.1 0 9 -2.4 0 6 -0.3 0 
5 -0 0 6 0.3 0 9 2.4 0 
14 8.1 0 21 19.2 0 30 37.5 0 
41 64.8 0 54 102.9 0 69 153.6 0 
86 218.7 0 105 300 0 126 399.3 0 
149 518.4 0 174 659.1 0 201 823.2 0 
30 -25 0 21 -12.8 0 14 -5.4 0 
9 -1.6 0 6 -0.2 0 5 -0 0 
6 0.2 0 9 1.6 0 14 5.4 0 
21 12.8 0 30 25 0 41 43.2 0 
54 68.6 0 69 102.4 0 86 145.8 0 
105 200 0 126 266.2 0 149 345.6 0 
174 439.4 0 201 548.8 0 30 -12.5 0 
21 -6.4 0 14 -2.7 0 9 -0.8 0 
6 -0.1 0 5 -0 0 6 0.1 0 
9 0.8 0 14 2.7 0 21 6.4 0 
30 12.5 0 41 21.6 0 54 34.3 0 
69 51.2 0 86 72.9 0 105 100 0 
126 133.1 0 149 172.8 0 174 219.7 0 
201 274.4 0 30 0 0 21 0 0 
14 0 0 9 0 0 6 0 0 
5 0 0 6 -0 0 9 -0 0 
14 -0 0 21 -0 0 30 -0 0 
41 -0 0 54 -0 0 69 -0 0 
86 -0 0 105 -0 0 126 -0 0 
149 -0 0 174 -0 0 201 -0 0 
30 12.5 0 21 6.4 0 14 2.7 0 
9 0.8 0 6 0.1 0 5 0 0 
6 -0.1 0 9 -0.8 0 14 -2.7 0 
21 -6.4 0 30 -12.5 0 41 -21.6 0 
54 -34.3 0 69 -51.2 0 86 -72.9 0 
105 -100 0 126 -133.1 0 149 -172.8 0 
174 -219.7 0 201 -274.4 0 30 25 0 
21 12.8 0 14 5.4 0 9 1.6 0 
6 0.2 0 5 0 0 6 -0.2 0 
9 -1.6 0 14 -5.4 0 21 -12.8 0 
30 -25 0 41 -43.2 0 54 -68.6 0 
69 -102.4 0 86 -145.8 0 105 -200 0 
126 -266.2 0 149 -345.6 0 174 -439.4 0 
201 -548.8 0 30 37.5 0 21 19.2 0 
14 8.1 0 9 2.4 0 6 0.3 0 
5 0 0 6 -0.3 0 9 -2.4 0 
14 -8.1 0 21 -19.2 0 30 -37.5 0 
41 -64.8 0 54 -102.9 0 69 -153.6 0 
86 -218.7 0 105 -300 0 126 -399.3 0 
149 -518.4 0 174 -659.1 0 201 -823.2 0 
30 50 0 21 25.6 0 14 10.8 0 
9 3.2 0 6 0.4 0 5 0 0 
6 -0.4 0 9 -3.2 0 14 -10.8 0 
21 -25.6 0 30 -50 0 41 -86.4 0 
54 -137.2 0 69 -204.8 0 86 -291.6 0 
105 -400 0 126 -532.4 0 149 -691.2 0 
174 -878.8 0 201 -1097.6 0 30 62.5 0 
21 32 0 14 13.5 0 9 4 0 
6 0.5 0 5 0 0 6 -0.5 0 
9 -4 0 14 -13.5 0 21 -32 0 
30 -62.5 0 41 -108 0 54 -171.5 0 
69 -256 0 86 -364.5 0 105 -500 0 
126 -665.5 0 149 -864 0 174 -1098.5 0 
201 -1372 0 30 75 0 21 38.4 0 
14 16.2 0 9 4.8 0 6 0.6 0 
5 0 0 6 -0.6 0 9 -4.8 0 
14 -16.2 0 21 -38.4 0 30 -75 0 
41 -129.6 0 54 -205.8 0 69 -307.2 0 
86 -437.4 0 105 -600 0 126 -798.6 0 
149 -1036.8 0 174 -1318.2 0 201 -1646.4 0 
30 87.5 0 21 44.8 0 14 18.9 0 
9 5.6 0 6 0.7 0 5 0 0 
6 -0.7 0 9 -5.6 0 14 -18.9 0 
21 -44.8 0 30 -87.5 0 41 -151.2 0 
54 -240.1 0 69 -358.4 0 86 -510.3 0 
105 -700 0 126 -931.7 0 149 -1209.6 0 
174 -1537.9 0 201 -1920.8 0 30 100 0 
21 51.2 0 14 21.6 0 9 6.4 0 
6 0.8 0 5 0 0 6 -0.8 0 
9 -6.4 0 14 -21.6 0 21 -51.2 0 
30 -100 0 41 -172.8 0 54 -274.4 0 
69 -409.6 0 86 -583.2 0 105 -800 0 
126 -1064.8 0 149 -1382.4 0 174 -1757.6 0 
201 -2195.2 0 30 112.5 0 21 57.6 0 
14 24.3 0 9 7.2 0 6 0.9 0 
5 0 0 6 -0.9 0 9 -7.2 0 
14 -24.3 0 21 -57.6 0 30 -112.5 0 
41 -194.4 0 54 -308.7 0 69 -460.8 0 
86 -656.1 0 105 -900 0 126 -1197.9 0 
149 -1555.2 0 174 -1977.3 0 201 -2469.6 0 
30 125 0 21 64 0 14 27 0 
9 8 0 6 1 0 5 0 0 
6 -1 0 9 -8 0 14 -27 0 
21 -64 0 30 -125 0 41 -216 0 
54 -343 0 69 -512 0 86 -729 0 
105 -1000 0 126 -1331 0 149 -1728 0 
174 -2197 0 201 -2744 0 30 137.5 0 
21 70.4 0 14 29.7 0 9 8.8 0 
6 1.1 0 5 0 0 6 -1.1 0 
9 -8.8 0 14 -29.7 0 21 -70.4 0 
30 -137.5 0 41 -237.6 0 54 -377.3 0 
69 -563.2 0 86 -801.9 0 105 -1100 0 
126 -1464.1 0 149 -1900.8 0 174 -2416.7 0 
201 -3018.4 0 30 150 0 21 76.8 0 
14 32.4 0 9 9.6 0 6 1.2 0 
5 0 0 6 -1.2 0 9 -9.6 0 
14 -32.4 0 21 -76.8 0 30 -150 0 
41 -259.2 0 54 -411.6 0 69 -614.4 0 
86 -874.8 0 105 -1200 0 126 -1597.2 0 
149 -2073.6 0 174 -2636.4 0 201 -3292.8 0 
30 162.5 0 21 83.2 0 14 35.1 0 
9 10.4 0 6 1.3 0 5 0 0 
6 -1.3 0 9 -10.4 0 14 -35.1 0 
21 -83.2 0 30 -162.5 0 41 -280.8 0 
54 -445.9 0 69 -665.6 0 86 -947.7 0 
105 -1300 0 126 -1730.3 0 149 -2246.4 0 
174 -2856.1 0 201 -3567.2 0 30 175 0 
21 89.6 0 14 37.8 0 9 11.2 0 
6 1.4 0 5 0 0 6 -1.4 0 
9 -11.2 0 14 -37.8 0 21 -89.6 0 
30 -175 0 41 -302.4 0 54 -480.2 0 
69 -716.8 0 86 -1020.6 0 105 -1400 0 
126 -1863.4 0 149 -2419.2 0 174 -3075.8 0 
201 -3841.6 0 
