# vtk DataFile Version 5.1
vtk output
ASCII
DATASET STRUCTURED_GRID
DIMENSIONS 2 2 1
POINTS 4 float
0 0 0 1 0 0 0 1 0 
1 1 0 
POINT_DATA 4
VECTORS vectors double
0.1 0 0 1.1 0 0 0.1 0 0 
1.1 0 0 
