# vtk DataFile Version 5.1
vtk output
ASCII
DATASET STRUCTURED_GRID
DIMENSIONS 4 2 1
POINTS 8 float
0 0 0 1 0 0 2 0 0 
3 0 0 0 1 0 1 1 0 
2 1 0 3 1 0 
POINT_DATA 8
VECTORS vectors double
0.1 0 0 0.1 0 0 0 0 0 
0 0 0 0.1 0 0 0.1 0 0 
0 0 0 0 0 0 
