# vtk DataFile Version 5.1
vtk output
ASCII
DATASET STRUCTURED_GRID
DIMENSIONS 30 30 60
POINTS 54000 float
0 0 0 0.103448 0 0 0.206897 0 0 
0.310345 0 0 0.413793 0 0 0.517241 0 0 
0.62069 0 0 0.724138 0 0 0.827586 0 0 
0.931035 0 0 1.03448 0 0 1.13793 0 0 
1.24138 0 0 1.34483 0 0 1.44828 0 0 
1.55172 0 0 1.65517 0 0 1.75862 0 0 
1.86207 0 0 1.96552 0 0 2.06897 0 0 
2.17241 0 0 2.27586 0 0 2.37931 0 0 
2.48276 0 0 2.58621 0 0 2.68966 0 0 
2.7931 0 0 2.89655 0 0 3 0 0 
0 0.103448 0 0.103448 0.103448 0 0.206897 0.103448 0 
0.310345 0.103448 0 0.413793 0.103448 0 0.517241 0.103448 0 
0.62069 0.103448 0 0.724138 0.103448 0 0.827586 0.103448 0 
0.931035 0.103448 0 1.03448 0.103448 0 1.13793 0.103448 0 
1.24138 0.103448 0 1.34483 0.103448 0 1.44828 0.103448 0 
1.55172 0.103448 0 1.65517 0.103448 0 1.75862 0.103448 0 
1.86207 0.103448 0 1.96552 0.103448 0 2.06897 0.103448 0 
2.17241 0.103448 0 2.27586 0.103448 0 2.37931 0.103448 0 
2.48276 0.103448 0 2.58621 0.103448 0 2.68966 0.103448 0 
2.7931 0.103448 0 2.89655 0.103448 0 3 0.103448 0 
0 0.206897 0 0.103448 0.206897 0 0.206897 0.206897 0 
0.310345 0.206897 0 0.413793 0.206897 0 0.517241 0.206897 0 
0.62069 0.206897 0 0.724138 0.206897 0 0.827586 0.206897 0 
0.931035 0.206897 0 1.03448 0.206897 0 1.13793 0.206897 0 
1.24138 0.206897 0 1.34483 0.206897 0 1.44828 0.206897 0 
1.55172 0.206897 0 1.65517 0.206897 0 1.75862 0.206897 0 
1.86207 0.206897 0 1.96552 0.206897 0 2.06897 0.206897 0 
2.17241 0.206897 0 2.27586 0.206897 0 2.37931 0.206897 0 
2.48276 0.206897 0 2.58621 0.206897 0 2.68966 0.206897 0 
2.7931 0.206897 0 2.89655 0.206897 0 3 0.206897 0 
0 0.310345 0 0.103448 0.310345 0 0.206897 0.310345 0 
0.310345 0.310345 0 0.413793 0.310345 0 0.517241 0.310345 0 
0.62069 0.310345 0 0.724138 0.310345 0 0.827586 0.310345 0 
0.931035 0.310345 0 1.03448 0.310345 0 1.13793 0.310345 0 
1.24138 0.310345 0 1.34483 0.310345 0 1.44828 0.310345 0 
1.55172 0.310345 0 1.65517 0.310345 0 1.75862 0.310345 0 
1.86207 0.310345 0 1.96552 0.310345 0 2.06897 0.310345 0 
2.17241 0.310345 0 2.27586 0.310345 0 2.37931 0.310345 0 
2.48276 0.310345 0 2.58621 0.310345 0 2.68966 0.310345 0 
2.7931 0.310345 0 2.89655 0.310345 0 3 0.310345 0 
0 0.413793 0 0.103448 0.413793 0 0.206897 0.413793 0 
0.310345 0.413793 0 0.413793 0.413793 0 0.517241 0.413793 0 
0.62069 0.413793 0 0.724138 0.413793 0 0.827586 0.413793 0 
0.931035 0.413793 0 1.03448 0.413793 0 1.13793 0.413793 0 
1.24138 0.413793 0 1.34483 0.413793 0 1.44828 0.413793 0 
1.55172 0.413793 0 1.65517 0.413793 0 1.75862 0.413793 0 
1.86207 0.413793 0 1.96552 0.413793 0 2.06897 0.413793 0 
2.17241 0.413793 0 2.27586 0.413793 0 2.37931 0.413793 0 
2.48276 0.413793 0 2.58621 0.413793 0 2.68966 0.413793 0 
2.7931 0.413793 0 2.89655 0.413793 0 3 0.413793 0 
0 0.517241 0 0.103448 0.517241 0 0.206897 0.517241 0 
0.310345 0.517241 0 0.413793 0.517241 0 0.517241 0.517241 0 
0.62069 0.517241 0 0.724138 0.517241 0 0.827586 0.517241 0 
0.931035 0.517241 0 1.03448 0.517241 0 1.13793 0.517241 0 
1.24138 0.517241 0 1.34483 0.517241 0 1.44828 0.517241 0 
1.55172 0.517241 0 1.65517 0.517241 0 1.75862 0.517241 0 
1.86207 0.517241 0 1.96552 0.517241 0 2.06897 0.517241 0 
2.17241 0.517241 0 2.27586 0.517241 0 2.37931 0.517241 0 
2.48276 0.517241 0 2.58621 0.517241 0 2.68966 0.517241 0 
2.7931 0.517241 0 2.89655 0.517241 0 3 0.517241 0 
0 0.62069 0 0.103448 0.62069 0 0.206897 0.62069 0 
0.310345 0.62069 0 0.413793 0.62069 0 0.517241 0.62069 0 
0.62069 0.62069 0 0.724138 0.62069 0 0.827586 0.62069 0 
0.931035 0.62069 0 1.03448 0.62069 0 1.13793 0.62069 0 
1.24138 0.62069 0 1.34483 0.62069 0 1.44828 0.62069 0 
1.55172 0.62069 0 1.65517 0.62069 0 1.75862 0.62069 0 
1.86207 0.62069 0 1.96552 0.62069 0 2.06897 0.62069 0 
2.17241 0.62069 0 2.27586 0.62069 0 2.37931 0.62069 0 
2.48276 0.62069 0 2.58621 0.62069 0 2.68966 0.62069 0 
2.7931 0.62069 0 2.89655 0.62069 0 3 0.62069 0 
0 0.724138 0 0.103448 0.724138 0 0.206897 0.724138 0 
0.310345 0.724138 0 0.413793 0.724138 0 0.517241 0.724138 0 
0.62069 0.724138 0 0.724138 0.724138 0 0.827586 0.724138 0 
0.931035 0.724138 0 1.03448 0.724138 0 1.13793 0.724138 0 
1.24138 0.724138 0 1.34483 0.724138 0 1.44828 0.724138 0 
1.55172 0.724138 0 1.65517 0.724138 0 1.75862 0.724138 0 
1.86207 0.724138 0 1.96552 0.724138 0 2.06897 0.724138 0 
2.17241 0.724138 0 2.27586 0.724138 0 2.37931 0.724138 0 
2.48276 0.724138 0 2.58621 0.724138 0 2.68966 0.724138 0 
2.7931 0.724138 0 2.89655 0.724138 0 3 0.724138 0 
0 0.827586 0 0.103448 0.827586 0 0.206897 0.827586 0 
0.310345 0.827586 0 0.413793 0.827586 0 0.517241 0.827586 0 
0.62069 0.827586 0 0.724138 0.827586 0 0.827586 0.827586 0 
0.931035 0.827586 0 1.03448 0.827586 0 1.13793 0.827586 0 
1.24138 0.827586 0 1.34483 0.827586 0 1.44828 0.827586 0 
1.55172 0.827586 0 1.65517 0.827586 0 1.75862 0.827586 0 
1.86207 0.827586 0 1.96552 0.827586 0 2.06897 0.827586 0 
2.17241 0.827586 0 2.27586 0.827586 0 2.37931 0.827586 0 
2.48276 0.827586 0 2.58621 0.827586 0 2.68966 0.827586 0 
2.7931 0.827586 0 2.89655 0.827586 0 3 0.827586 0 
0 0.931035 0 0.103448 0.931035 0 0.206897 0.931035 0 
0.310345 0.931035 0 0.413793 0.931035 0 0.517241 0.931035 0 
0.62069 0.931035 0 0.724138 0.931035 0 0.827586 0.931035 0 
0.931035 0.931035 0 1.03448 0.931035 0 1.13793 0.931035 0 
1.24138 0.931035 0 1.34483 0.931035 0 1.44828 0.931035 0 
1.55172 0.931035 0 1.65517 0.931035 0 1.75862 0.931035 0 
1.86207 0.931035 0 1.96552 0.931035 0 2.06897 0.931035 0 
2.17241 0.931035 0 2.27586 0.931035 0 2.37931 0.931035 0 
2.48276 0.931035 0 2.58621 0.931035 0 2.68966 0.931035 0 
2.7931 0.931035 0 2.89655 0.931035 0 3 0.931035 0 
0 1.03448 0 0.103448 1.03448 0 0.206897 1.03448 0 
0.310345 1.03448 0 0.413793 1.03448 0 0.517241 1.03448 0 
0.62069 1.03448 0 0.724138 1.03448 0 0.827586 1.03448 0 
0.931035 1.03448 0 1.03448 1.03448 0 1.13793 1.03448 0 
1.24138 1.03448 0 1.34483 1.03448 0 1.44828 1.03448 0 
1.55172 1.03448 0 1.65517 1.03448 0 1.75862 1.03448 0 
1.86207 1.03448 0 1.96552 1.03448 0 2.06897 1.03448 0 
2.17241 1.03448 0 2.27586 1.03448 0 2.37931 1.03448 0 
2.48276 1.03448 0 2.58621 1.03448 0 2.68966 1.03448 0 
2.7931 1.03448 0 2.89655 1.03448 0 3 1.03448 0 
0 1.13793 0 0.103448 1.13793 0 0.206897 1.13793 0 
0.310345 1.13793 0 0.413793 1.13793 0 0.517241 1.13793 0 
0.62069 1.13793 0 0.724138 1.13793 0 0.827586 1.13793 0 
0.931035 1.13793 0 1.03448 1.13793 0 1.13793 1.13793 0 
1.24138 1.13793 0 1.34483 1.13793 0 1.44828 1.13793 0 
1.55172 1.13793 0 1.65517 1.13793 0 1.75862 1.13793 0 
1.86207 1.13793 0 1.96552 1.13793 0 2.06897 1.13793 0 
2.17241 1.13793 0 2.27586 1.13793 0 2.37931 1.13793 0 
2.48276 1.13793 0 2.58621 1.13793 0 2.68966 1.13793 0 
2.7931 1.13793 0 2.89655 1.13793 0 3 1.13793 0 
0 1.24138 0 0.103448 1.24138 0 0.206897 1.24138 0 
0.310345 1.24138 0 0.413793 1.24138 0 0.517241 1.24138 0 
0.62069 1.24138 0 0.724138 1.24138 0 0.827586 1.24138 0 
0.931035 1.24138 0 1.03448 1.24138 0 1.13793 1.24138 0 
1.24138 1.24138 0 1.34483 1.24138 0 1.44828 1.24138 0 
1.55172 1.24138 0 1.65517 1.24138 0 1.75862 1.24138 0 
1.86207 1.24138 0 1.96552 1.24138 0 2.06897 1.24138 0 
2.17241 1.24138 0 2.27586 1.24138 0 2.37931 1.24138 0 
2.48276 1.24138 0 2.58621 1.24138 0 2.68966 1.24138 0 
2.7931 1.24138 0 2.89655 1.24138 0 3 1.24138 0 
0 1.34483 0 0.103448 1.34483 0 0.206897 1.34483 0 
0.310345 1.34483 0 0.413793 1.34483 0 0.517241 1.34483 0 
0.62069 1.34483 0 0.724138 1.34483 0 0.827586 1.34483 0 
0.931035 1.34483 0 1.03448 1.34483 0 1.13793 1.34483 0 
1.24138 1.34483 0 1.34483 1.34483 0 1.44828 1.34483 0 
1.55172 1.34483 0 1.65517 1.34483 0 1.75862 1.34483 0 
1.86207 1.34483 0 1.96552 1.34483 0 2.06897 1.34483 0 
2.17241 1.34483 0 2.27586 1.34483 0 2.37931 1.34483 0 
2.48276 1.34483 0 2.58621 1.34483 0 2.68966 1.34483 0 
2.7931 1.34483 0 2.89655 1.34483 0 3 1.34483 0 
0 1.44828 0 0.103448 1.44828 0 0.206897 1.44828 0 
0.310345 1.44828 0 0.413793 1.44828 0 0.517241 1.44828 0 
0.62069 1.44828 0 0.724138 1.44828 0 0.827586 1.44828 0 
0.931035 1.44828 0 1.03448 1.44828 0 1.13793 1.44828 0 
1.24138 1.44828 0 1.34483 1.44828 0 1.44828 1.44828 0 
1.55172 1.44828 0 1.65517 1.44828 0 1.75862 1.44828 0 
1.86207 1.44828 0 1.96552 1.44828 0 2.06897 1.44828 0 
2.17241 1.44828 0 2.27586 1.44828 0 2.37931 1.44828 0 
2.48276 1.44828 0 2.58621 1.44828 0 2.68966 1.44828 0 
2.7931 1.44828 0 2.89655 1.44828 0 3 1.44828 0 
0 1.55172 0 0.103448 1.55172 0 0.206897 1.55172 0 
0.310345 1.55172 0 0.413793 1.55172 0 0.517241 1.55172 0 
0.62069 1.55172 0 0.724138 1.55172 0 0.827586 1.55172 0 
0.931035 1.55172 0 1.03448 1.55172 0 1.13793 1.55172 0 
1.24138 1.55172 0 1.34483 1.55172 0 1.44828 1.55172 0 
1.55172 1.55172 0 1.65517 1.55172 0 1.75862 1.55172 0 
1.86207 1.55172 0 1.96552 1.55172 0 2.06897 1.55172 0 
2.17241 1.55172 0 2.27586 1.55172 0 2.37931 1.55172 0 
2.48276 1.55172 0 2.58621 1.55172 0 2.68966 1.55172 0 
2.7931 1.55172 0 2.89655 1.55172 0 3 1.55172 0 
0 1.65517 0 0.103448 1.65517 0 0.206897 1.65517 0 
0.310345 1.65517 0 0.413793 1.65517 0 0.517241 1.65517 0 
0.62069 1.65517 0 0.724138 1.65517 0 0.827586 1.65517 0 
0.931035 1.65517 0 1.03448 1.65517 0 1.13793 1.65517 0 
1.24138 1.65517 0 1.34483 1.65517 0 1.44828 1.65517 0 
1.55172 1.65517 0 1.65517 1.65517 0 1.75862 1.65517 0 
1.86207 1.65517 0 1.96552 1.65517 0 2.06897 1.65517 0 
2.17241 1.65517 0 2.27586 1.65517 0 2.37931 1.65517 0 
2.48276 1.65517 0 2.58621 1.65517 0 2.68966 1.65517 0 
2.7931 1.65517 0 2.89655 1.65517 0 3 1.65517 0 
0 1.75862 0 0.103448 1.75862 0 0.206897 1.75862 0 
0.310345 1.75862 0 0.413793 1.75862 0 0.517241 1.75862 0 
0.62069 1.75862 0 0.724138 1.75862 0 0.827586 1.75862 0 
0.931035 1.75862 0 1.03448 1.75862 0 1.13793 1.75862 0 
1.24138 1.75862 0 1.34483 1.75862 0 1.44828 1.75862 0 
1.55172 1.75862 0 1.65517 1.75862 0 1.75862 1.75862 0 
1.86207 1.75862 0 1.96552 1.75862 0 2.06897 1.75862 0 
2.17241 1.75862 0 2.27586 1.75862 0 2.37931 1.75862 0 
2.48276 1.75862 0 2.58621 1.75862 0 2.68966 1.75862 0 
2.7931 1.75862 0 2.89655 1.75862 0 3 1.75862 0 
[...]
POINT_DATA 54000
VECTORS vectors double
1.5 -1.5 0.63661977237 1.5 -1.3965517241 0.63661977237 1.5 -1.2931034483 0.63661977237 
1.5 -1.1896551724 0.63661977237 1.5 -1.0862068966 0.63661977237 1.5 -0.98275862069 0.63661977237 
1.5 -0.87931034483 0.63661977237 1.5 -0.77586206897 0.63661977237 1.5 -0.6724137931 0.63661977237 
1.5 -0.56896551724 0.63661977237 1.5 -0.46551724138 0.63661977237 1.5 -0.36206896552 0.63661977237 
1.5 -0.25862068966 0.63661977237 1.5 -0.15517241379 0.63661977237 1.5 -0.051724137931 0.63661977237 
1.5 0.051724137931 0.63661977237 1.5 0.15517241379 0.63661977237 1.5 0.25862068966 0.63661977237 
1.5 0.36206896552 0.63661977237 1.5 0.46551724138 0.63661977237 1.5 0.56896551724 0.63661977237 
1.5 0.6724137931 0.63661977237 1.5 0.77586206897 0.63661977237 1.5 0.87931034483 0.63661977237 
1.5 0.98275862069 0.63661977237 1.5 1.0862068966 0.63661977237 1.5 1.1896551724 0.63661977237 
1.5 1.2931034483 0.63661977237 1.5 1.3965517241 0.63661977237 1.5 1.5 0.63661977237 
1.3965517241 -1.5 0.63661977237 1.3965517241 -1.3965517241 0.63661977237 1.3965517241 -1.2931034483 0.63661977237 
1.3965517241 -1.1896551724 0.63661977237 1.3965517241 -1.0862068966 0.63661977237 1.3965517241 -0.98275862069 0.63661977237 
1.3965517241 -0.87931034483 0.63661977237 1.3965517241 -0.77586206897 0.63661977237 1.3965517241 -0.6724137931 0.63661977237 
1.3965517241 -0.56896551724 0.63661977237 1.3965517241 -0.46551724138 0.63661977237 1.3965517241 -0.36206896552 0.63661977237 
1.3965517241 -0.25862068966 0.63661977237 1.3965517241 -0.15517241379 0.63661977237 1.3965517241 -0.051724137931 0.63661977237 
1.3965517241 0.051724137931 0.63661977237 1.3965517241 0.15517241379 0.63661977237 1.3965517241 0.25862068966 0.63661977237 
1.3965517241 0.36206896552 0.63661977237 1.3965517241 0.46551724138 0.63661977237 1.3965517241 0.56896551724 0.63661977237 
1.3965517241 0.6724137931 0.63661977237 1.3965517241 0.77586206897 0.63661977237 1.3965517241 0.87931034483 0.63661977237 
1.3965517241 0.98275862069 0.63661977237 1.3965517241 1.0862068966 0.63661977237 1.3965517241 1.1896551724 0.63661977237 
1.3965517241 1.2931034483 0.63661977237 1.3965517241 1.3965517241 0.63661977237 1.3965517241 1.5 0.63661977237 
1.2931034483 -1.5 0.63661977237 1.2931034483 -1.3965517241 0.63661977237 1.2931034483 -1.2931034483 0.63661977237 
1.2931034483 -1.1896551724 0.63661977237 1.2931034483 -1.0862068966 0.63661977237 1.2931034483 -0.98275862069 0.63661977237 
1.2931034483 -0.87931034483 0.63661977237 1.2931034483 -0.77586206897 0.63661977237 1.2931034483 -0.6724137931 0.63661977237 
1.2931034483 -0.56896551724 0.63661977237 1.2931034483 -0.46551724138 0.63661977237 1.2931034483 -0.36206896552 0.63661977237 
1.2931034483 -0.25862068966 0.63661977237 1.2931034483 -0.15517241379 0.63661977237 1.2931034483 -0.051724137931 0.63661977237 
1.2931034483 0.051724137931 0.63661977237 1.2931034483 0.15517241379 0.63661977237 1.2931034483 0.25862068966 0.63661977237 
1.2931034483 0.36206896552 0.63661977237 1.2931034483 0.46551724138 0.63661977237 1.2931034483 0.56896551724 0.63661977237 
1.2931034483 0.6724137931 0.63661977237 1.2931034483 0.77586206897 0.63661977237 1.2931034483 0.87931034483 0.63661977237 
1.2931034483 0.98275862069 0.63661977237 1.2931034483 1.0862068966 0.63661977237 1.2931034483 1.1896551724 0.63661977237 
1.2931034483 1.2931034483 0.63661977237 1.2931034483 1.3965517241 0.63661977237 1.2931034483 1.5 0.63661977237 
1.1896551724 -1.5 0.63661977237 1.1896551724 -1.3965517241 0.63661977237 1.1896551724 -1.2931034483 0.63661977237 
1.1896551724 -1.1896551724 0.63661977237 1.1896551724 -1.0862068966 0.63661977237 1.1896551724 -0.98275862069 0.63661977237 
1.1896551724 -0.87931034483 0.63661977237 1.1896551724 -0.77586206897 0.63661977237 1.1896551724 -0.6724137931 0.63661977237 
1.1896551724 -0.56896551724 0.63661977237 1.1896551724 -0.46551724138 0.63661977237 1.1896551724 -0.36206896552 0.63661977237 
1.1896551724 -0.25862068966 0.63661977237 1.1896551724 -0.15517241379 0.63661977237 1.1896551724 -0.051724137931 0.63661977237 
1.1896551724 0.051724137931 0.63661977237 1.1896551724 0.15517241379 0.63661977237 1.1896551724 0.25862068966 0.63661977237 
1.1896551724 0.36206896552 0.63661977237 1.1896551724 0.46551724138 0.63661977237 1.1896551724 0.56896551724 0.63661977237 
1.1896551724 0.6724137931 0.63661977237 1.1896551724 0.77586206897 0.63661977237 1.1896551724 0.87931034483 0.63661977237 
1.1896551724 0.98275862069 0.63661977237 1.1896551724 1.0862068966 0.63661977237 1.1896551724 1.1896551724 0.63661977237 
1.1896551724 1.2931034483 0.63661977237 1.1896551724 1.3965517241 0.63661977237 1.1896551724 1.5 0.63661977237 
1.0862068966 -1.5 0.63661977237 1.0862068966 -1.3965517241 0.63661977237 1.0862068966 -1.2931034483 0.63661977237 
1.0862068966 -1.1896551724 0.63661977237 1.0862068966 -1.0862068966 0.63661977237 1.0862068966 -0.98275862069 0.63661977237 
1.0862068966 -0.87931034483 0.63661977237 1.0862068966 -0.77586206897 0.63661977237 1.0862068966 -0.6724137931 0.63661977237 
1.0862068966 -0.56896551724 0.63661977237 1.0862068966 -0.46551724138 0.63661977237 1.0862068966 -0.36206896552 0.63661977237 
1.0862068966 -0.25862068966 0.63661977237 1.0862068966 -0.15517241379 0.63661977237 1.0862068966 -0.051724137931 0.63661977237 
1.0862068966 0.051724137931 0.63661977237 1.0862068966 0.15517241379 0.63661977237 1.0862068966 0.25862068966 0.63661977237 
1.0862068966 0.36206896552 0.63661977237 1.0862068966 0.46551724138 0.63661977237 1.0862068966 0.56896551724 0.63661977237 
1.0862068966 0.6724137931 0.63661977237 1.0862068966 0.77586206897 0.63661977237 1.0862068966 0.87931034483 0.63661977237 
1.0862068966 0.98275862069 0.63661977237 1.0862068966 1.0862068966 0.63661977237 1.0862068966 1.1896551724 0.63661977237 
1.0862068966 1.2931034483 0.63661977237 1.0862068966 1.3965517241 0.63661977237 1.0862068966 1.5 0.63661977237 
0.98275862069 -1.5 0.63661977237 0.98275862069 -1.3965517241 0.63661977237 0.98275862069 -1.2931034483 0.63661977237 
0.98275862069 -1.1896551724 0.63661977237 0.98275862069 -1.0862068966 0.63661977237 0.98275862069 -0.98275862069 0.63661977237 
0.98275862069 -0.87931034483 0.63661977237 0.98275862069 -0.77586206897 0.63661977237 0.98275862069 -0.6724137931 0.63661977237 
0.98275862069 -0.56896551724 0.63661977237 0.98275862069 -0.46551724138 0.63661977237 0.98275862069 -0.36206896552 0.63661977237 
0.98275862069 -0.25862068966 0.63661977237 0.98275862069 -0.15517241379 0.63661977237 0.98275862069 -0.051724137931 0.63661977237 
0.98275862069 0.051724137931 0.63661977237 0.98275862069 0.15517241379 0.63661977237 0.98275862069 0.25862068966 0.63661977237 
0.98275862069 0.36206896552 0.63661977237 0.98275862069 0.46551724138 0.63661977237 0.98275862069 0.56896551724 0.63661977237 
0.98275862069 0.6724137931 0.63661977237 0.98275862069 0.77586206897 0.63661977237 0.98275862069 0.87931034483 0.63661977237 
0.98275862069 0.98275862069 0.63661977237 0.98275862069 1.0862068966 0.63661977237 0.98275862069 1.1896551724 0.63661977237 
0.98275862069 1.2931034483 0.63661977237 0.98275862069 1.3965517241 0.63661977237 0.98275862069 1.5 0.63661977237 
0.87931034483 -1.5 0.63661977237 0.87931034483 -1.3965517241 0.63661977237 0.87931034483 -1.2931034483 0.63661977237 
0.87931034483 -1.1896551724 0.63661977237 0.87931034483 -1.0862068966 0.63661977237 0.87931034483 -0.98275862069 0.63661977237 
0.87931034483 -0.87931034483 0.63661977237 0.87931034483 -0.77586206897 0.63661977237 0.87931034483 -0.6724137931 0.63661977237 
0.87931034483 -0.56896551724 0.63661977237 0.87931034483 -0.46551724138 0.63661977237 0.87931034483 -0.36206896552 0.63661977237 
0.87931034483 -0.25862068966 0.63661977237 0.87931034483 -0.15517241379 0.63661977237 0.87931034483 -0.051724137931 0.63661977237 
0.87931034483 0.051724137931 0.63661977237 0.87931034483 0.15517241379 0.63661977237 0.87931034483 0.25862068966 0.63661977237 
0.87931034483 0.36206896552 0.63661977237 0.87931034483 0.46551724138 0.63661977237 0.87931034483 0.56896551724 0.63661977237 
0.87931034483 0.6724137931 0.63661977237 0.87931034483 0.77586206897 0.63661977237 0.87931034483 0.87931034483 0.63661977237 
0.87931034483 0.98275862069 0.63661977237 0.87931034483 1.0862068966 0.63661977237 0.87931034483 1.1896551724 0.63661977237 
0.87931034483 1.2931034483 0.63661977237 0.87931034483 1.3965517241 0.63661977237 0.87931034483 1.5 0.63661977237 
0.77586206897 -1.5 0.63661977237 0.77586206897 -1.3965517241 0.63661977237 0.77586206897 -1.2931034483 0.63661977237 
0.77586206897 -1.1896551724 0.63661977237 0.77586206897 -1.0862068966 0.63661977237 0.77586206897 -0.98275862069 0.63661977237 
0.77586206897 -0.87931034483 0.63661977237 0.77586206897 -0.77586206897 0.63661977237 0.77586206897 -0.6724137931 0.63661977237 
0.77586206897 -0.56896551724 0.63661977237 0.77586206897 -0.46551724138 0.63661977237 0.77586206897 -0.36206896552 0.63661977237 
0.77586206897 -0.25862068966 0.63661977237 0.77586206897 -0.15517241379 0.63661977237 0.77586206897 -0.051724137931 0.63661977237 
0.77586206897 0.051724137931 0.63661977237 0.77586206897 0.15517241379 0.63661977237 0.77586206897 0.25862068966 0.63661977237 
0.77586206897 0.36206896552 0.63661977237 0.77586206897 0.46551724138 0.63661977237 0.77586206897 0.56896551724 0.63661977237 
0.77586206897 0.6724137931 0.63661977237 0.77586206897 0.77586206897 0.63661977237 0.77586206897 0.87931034483 0.63661977237 
0.77586206897 0.98275862069 0.63661977237 0.77586206897 1.0862068966 0.63661977237 0.77586206897 1.1896551724 0.63661977237 
0.77586206897 1.2931034483 0.63661977237 0.77586206897 1.3965517241 0.63661977237 0.77586206897 1.5 0.63661977237 
0.6724137931 -1.5 0.63661977237 0.6724137931 -1.3965517241 0.63661977237 0.6724137931 -1.2931034483 0.63661977237 
0.6724137931 -1.1896551724 0.63661977237 0.6724137931 -1.0862068966 0.63661977237 0.6724137931 -0.98275862069 0.63661977237 
0.6724137931 -0.87931034483 0.63661977237 0.6724137931 -0.77586206897 0.63661977237 0.6724137931 -0.6724137931 0.63661977237 
0.6724137931 -0.56896551724 0.63661977237 0.6724137931 -0.46551724138 0.63661977237 0.6724137931 -0.36206896552 0.63661977237 
0.6724137931 -0.25862068966 0.63661977237 0.6724137931 -0.15517241379 0.63661977237 0.6724137931 -0.051724137931 0.63661977237 
0.6724137931 0.051724137931 0.63661977237 0.6724137931 0.15517241379 0.63661977237 0.6724137931 0.25862068966 0.63661977237 
0.6724137931 0.36206896552 0.63661977237 0.6724137931 0.46551724138 0.63661977237 0.6724137931 0.56896551724 0.63661977237 
0.6724137931 0.6724137931 0.63661977237 0.6724137931 0.77586206897 0.63661977237 0.6724137931 0.87931034483 0.63661977237 
0.6724137931 0.98275862069 0.63661977237 0.6724137931 1.0862068966 0.63661977237 0.6724137931 1.1896551724 0.63661977237 
0.6724137931 1.2931034483 0.63661977237 0.6724137931 1.3965517241 0.63661977237 0.6724137931 1.5 0.63661977237 
0.56896551724 -1.5 0.63661977237 0.56896551724 -1.3965517241 0.63661977237 0.56896551724 -1.2931034483 0.63661977237 
0.56896551724 -1.1896551724 0.63661977237 0.56896551724 -1.0862068966 0.63661977237 0.56896551724 -0.98275862069 0.63661977237 
0.56896551724 -0.87931034483 0.63661977237 0.56896551724 -0.77586206897 0.63661977237 0.56896551724 -0.6724137931 0.63661977237 
0.56896551724 -0.56896551724 0.63661977237 0.56896551724 -0.46551724138 0.63661977237 0.56896551724 -0.36206896552 0.63661977237 
0.56896551724 -0.25862068966 0.63661977237 0.56896551724 -0.15517241379 0.63661977237 0.56896551724 -0.051724137931 0.63661977237 
0.56896551724 0.051724137931 0.63661977237 0.56896551724 0.15517241379 0.63661977237 0.56896551724 0.25862068966 0.63661977237 
0.56896551724 0.36206896552 0.63661977237 0.56896551724 0.46551724138 0.63661977237 0.56896551724 0.56896551724 0.63661977237 
0.56896551724 0.6724137931 0.63661977237 0.56896551724 0.77586206897 0.63661977237 0.56896551724 0.87931034483 0.63661977237 
0.56896551724 0.98275862069 0.63661977237 0.56896551724 1.0862068966 0.63661977237 0.56896551724 1.1896551724 0.63661977237 
0.56896551724 1.2931034483 0.63661977237 0.56896551724 1.3965517241 0.63661977237 0.56896551724 1.5 0.63661977237 
0.46551724138 -1.5 0.63661977237 0.46551724138 -1.3965517241 0.63661977237 0.46551724138 -1.2931034483 0.63661977237 
0.46551724138 -1.1896551724 0.63661977237 0.46551724138 -1.0862068966 0.63661977237 0.46551724138 -0.98275862069 0.63661977237 
0.46551724138 -0.87931034483 0.63661977237 0.46551724138 -0.77586206897 0.63661977237 0.46551724138 -0.6724137931 0.63661977237 
0.46551724138 -0.56896551724 0.63661977237 0.46551724138 -0.46551724138 0.63661977237 0.46551724138 -0.36206896552 0.63661977237 
0.46551724138 -0.25862068966 0.63661977237 0.46551724138 -0.15517241379 0.63661977237 0.46551724138 -0.051724137931 0.63661977237 
0.46551724138 0.051724137931 0.63661977237 0.46551724138 0.15517241379 0.63661977237 0.46551724138 0.25862068966 0.63661977237 
0.46551724138 0.36206896552 0.63661977237 0.46551724138 0.46551724138 0.63661977237 0.46551724138 0.56896551724 0.63661977237 
0.46551724138 0.6724137931 0.63661977237 0.46551724138 0.77586206897 0.63661977237 0.46551724138 0.87931034483 0.63661977237 
0.46551724138 0.98275862069 0.63661977237 0.46551724138 1.0862068966 0.63661977237 0.46551724138 1.1896551724 0.63661977237 
0.46551724138 1.2931034483 0.63661977237 0.46551724138 1.3965517241 0.63661977237 0.46551724138 1.5 0.63661977237 
0.36206896552 -1.5 0.63661977237 0.36206896552 -1.3965517241 0.63661977237 0.36206896552 -1.2931034483 0.63661977237 
0.36206896552 -1.1896551724 0.63661977237 0.36206896552 -1.0862068966 0.63661977237 0.36206896552 -0.98275862069 0.63661977237 
0.36206896552 -0.87931034483 0.63661977237 0.36206896552 -0.77586206897 0.63661977237 0.36206896552 -0.6724137931 0.63661977237 
0.36206896552 -0.56896551724 0.63661977237 0.36206896552 -0.46551724138 0.63661977237 0.36206896552 -0.36206896552 0.63661977237 
0.36206896552 -0.25862068966 0.63661977237 0.36206896552 -0.15517241379 0.63661977237 0.36206896552 -0.051724137931 0.63661977237 
0.36206896552 0.051724137931 0.63661977237 0.36206896552 0.15517241379 0.63661977237 0.36206896552 0.25862068966 0.63661977237 
0.36206896552 0.36206896552 0.63661977237 0.36206896552 0.46551724138 0.63661977237 0.36206896552 0.56896551724 0.63661977237 
0.36206896552 0.6724137931 0.63661977237 0.36206896552 0.77586206897 0.63661977237 0.36206896552 0.87931034483 0.63661977237 
0.36206896552 0.98275862069 0.63661977237 0.36206896552 1.0862068966 0.63661977237 0.36206896552 1.1896551724 0.63661977237 
0.36206896552 1.2931034483 0.63661977237 0.36206896552 1.3965517241 0.63661977237 0.36206896552 1.5 0.63661977237 
0.25862068966 -1.5 0.63661977237 0.25862068966 -1.3965517241 0.63661977237 0.25862068966 -1.2931034483 0.63661977237 
0.25862068966 -1.1896551724 0.63661977237 0.25862068966 -1.0862068966 0.63661977237 0.25862068966 -0.98275862069 0.63661977237 
0.25862068966 -0.87931034483 0.63661977237 0.25862068966 -0.77586206897 0.63661977237 0.25862068966 -0.6724137931 0.63661977237 
0.25862068966 -0.56896551724 0.63661977237 0.25862068966 -0.46551724138 0.63661977237 0.25862068966 -0.36206896552 0.63661977237 
0.25862068966 -0.25862068966 0.63661977237 0.25862068966 -0.15517241379 0.63661977237 0.25862068966 -0.051724137931 0.63661977237 
0.25862068966 0.051724137931 0.63661977237 0.25862068966 0.15517241379 0.63661977237 0.25862068966 0.25862068966 0.63661977237 
0.25862068966 0.36206896552 0.63661977237 0.25862068966 0.46551724138 0.63661977237 0.25862068966 0.56896551724 0.63661977237 
0.25862068966 0.6724137931 0.63661977237 0.25862068966 0.77586206897 0.63661977237 0.25862068966 0.87931034483 0.63661977237 
0.25862068966 0.98275862069 0.63661977237 0.25862068966 1.0862068966 0.63661977237 0.25862068966 1.1896551724 0.63661977237 
0.25862068966 1.2931034483 0.63661977237 0.25862068966 1.3965517241 0.63661977237 0.25862068966 1.5 0.63661977237 
0.15517241379 -1.5 0.63661977237 0.15517241379 -1.3965517241 0.63661977237 0.15517241379 -1.2931034483 0.63661977237 
0.15517241379 -1.1896551724 0.63661977237 0.15517241379 -1.0862068966 0.63661977237 0.15517241379 -0.98275862069 0.63661977237 
0.15517241379 -0.87931034483 0.63661977237 0.15517241379 -0.77586206897 0.63661977237 0.15517241379 -0.6724137931 0.63661977237 
0.15517241379 -0.56896551724 0.63661977237 0.15517241379 -0.46551724138 0.63661977237 0.15517241379 -0.36206896552 0.63661977237 
0.15517241379 -0.25862068966 0.63661977237 0.15517241379 -0.15517241379 0.63661977237 0.15517241379 -0.051724137931 0.63661977237 
0.15517241379 0.051724137931 0.63661977237 0.15517241379 0.15517241379 0.63661977237 0.15517241379 0.25862068966 0.63661977237 
0.15517241379 0.36206896552 0.63661977237 0.15517241379 0.46551724138 0.63661977237 0.15517241379 0.56896551724 0.63661977237 
0.15517241379 0.6724137931 0.63661977237 0.15517241379 0.77586206897 0.63661977237 0.15517241379 0.87931034483 0.63661977237 
0.15517241379 0.98275862069 0.63661977237 0.15517241379 1.0862068966 0.63661977237 0.15517241379 1.1896551724 0.63661977237 
0.15517241379 1.2931034483 0.63661977237 0.15517241379 1.3965517241 0.63661977237 0.15517241379 1.5 0.63661977237 
0.051724137931 -1.5 0.63661977237 0.051724137931 -1.3965517241 0.63661977237 0.051724137931 -1.2931034483 0.63661977237 
0.051724137931 -1.1896551724 0.63661977237 0.051724137931 -1.0862068966 0.63661977237 0.051724137931 -0.98275862069 0.63661977237 
0.051724137931 -0.87931034483 0.63661977237 0.051724137931 -0.77586206897 0.63661977237 0.051724137931 -0.6724137931 0.63661977237 
0.051724137931 -0.56896551724 0.63661977237 0.051724137931 -0.46551724138 0.63661977237 0.051724137931 -0.36206896552 0.63661977237 
0.051724137931 -0.25862068966 0.63661977237 0.051724137931 -0.15517241379 0.63661977237 0.051724137931 -0.051724137931 0.63661977237 
0.051724137931 0.051724137931 0.63661977237 0.051724137931 0.15517241379 0.63661977237 0.051724137931 0.25862068966 0.63661977237 
0.051724137931 0.36206896552 0.63661977237 0.051724137931 0.46551724138 0.63661977237 0.051724137931 0.56896551724 0.63661977237 
0.051724137931 0.6724137931 0.63661977237 0.051724137931 0.77586206897 0.63661977237 0.051724137931 0.87931034483 0.63661977237 
0.051724137931 0.98275862069 0.63661977237 0.051724137931 1.0862068966 0.63661977237 0.051724137931 1.1896551724 0.63661977237 
0.051724137931 1.2931034483 0.63661977237 0.051724137931 1.3965517241 0.63661977237 0.051724137931 1.5 0.63661977237 
-0.051724137931 -1.5 0.63661977237 -0.051724137931 -1.3965517241 0.63661977237 -0.051724137931 -1.2931034483 0.63661977237 
-0.051724137931 -1.1896551724 0.63661977237 -0.051724137931 -1.0862068966 0.63661977237 -0.051724137931 -0.98275862069 0.63661977237 
-0.051724137931 -0.87931034483 0.63661977237 -0.051724137931 -0.77586206897 0.63661977237 -0.051724137931 -0.6724137931 0.63661977237 
-0.051724137931 -0.56896551724 0.63661977237 -0.051724137931 -0.46551724138 0.63661977237 -0.051724137931 -0.36206896552 0.63661977237 
-0.051724137931 -0.25862068966 0.63661977237 -0.051724137931 -0.15517241379 0.63661977237 -0.051724137931 -0.051724137931 0.63661977237 
-0.051724137931 0.051724137931 0.63661977237 -0.051724137931 0.15517241379 0.63661977237 -0.051724137931 0.25862068966 0.63661977237 
-0.051724137931 0.36206896552 0.63661977237 -0.051724137931 0.46551724138 0.63661977237 -0.051724137931 0.56896551724 0.63661977237 
-0.051724137931 0.6724137931 0.63661977237 -0.051724137931 0.77586206897 0.63661977237 -0.051724137931 0.87931034483 0.63661977237 
-0.051724137931 0.98275862069 0.63661977237 -0.051724137931 1.0862068966 0.63661977237 -0.051724137931 1.1896551724 0.63661977237 
-0.051724137931 1.2931034483 0.63661977237 -0.051724137931 1.3965517241 0.63661977237 -0.051724137931 1.5 0.63661977237 
-0.15517241379 -1.5 0.63661977237 -0.15517241379 -1.3965517241 0.63661977237 -0.15517241379 -1.2931034483 0.63661977237 